<?xml version='1.0' encoding='utf-8'?>
<VTKFile Name='FiniteElement' byte_order='LittleEndian' type='UnstructuredGrid' version='0.1' xmlns='VTK'>
<UnstructuredGrid>
<Piece DegreesOfFreedom='3' NumberOfCells='81' NumberOfPoints='160'>
<Points>
<DataArray NumberOfComponents='3' type='Float32' Name='Position' format='ascii'>
0.000000e+00 0.000000e+00 0.000000e+00
6.666667e-06 0.000000e+00 0.000000e+00
1.333333e-05 0.000000e+00 0.000000e+00
2.000000e-05 0.000000e+00 0.000000e+00
0.000000e+00 6.666667e-06 0.000000e+00
6.666667e-06 6.666667e-06 0.000000e+00
1.333333e-05 6.666667e-06 0.000000e+00
2.000000e-05 6.666667e-06 0.000000e+00
0.000000e+00 1.333333e-05 0.000000e+00
6.666667e-06 1.333333e-05 0.000000e+00
1.333333e-05 1.333333e-05 0.000000e+00
2.000000e-05 1.333333e-05 0.000000e+00
0.000000e+00 2.000000e-05 0.000000e+00
6.666667e-06 2.000000e-05 0.000000e+00
1.333333e-05 2.000000e-05 0.000000e+00
2.000000e-05 2.000000e-05 0.000000e+00
0.000000e+00 2.666667e-05 0.000000e+00
6.666667e-06 2.666667e-05 0.000000e+00
1.333333e-05 2.666667e-05 0.000000e+00
2.000000e-05 2.666667e-05 0.000000e+00
0.000000e+00 3.333333e-05 0.000000e+00
6.666667e-06 3.333333e-05 0.000000e+00
1.333333e-05 3.333333e-05 0.000000e+00
2.000000e-05 3.333333e-05 0.000000e+00
0.000000e+00 4.000000e-05 0.000000e+00
6.666667e-06 4.000000e-05 0.000000e+00
1.333333e-05 4.000000e-05 0.000000e+00
2.000000e-05 4.000000e-05 0.000000e+00
0.000000e+00 4.666667e-05 0.000000e+00
6.666667e-06 4.666667e-05 0.000000e+00
1.333333e-05 4.666667e-05 0.000000e+00
2.000000e-05 4.666667e-05 0.000000e+00
0.000000e+00 5.333333e-05 0.000000e+00
6.666667e-06 5.333333e-05 0.000000e+00
1.333333e-05 5.333333e-05 0.000000e+00
2.000000e-05 5.333333e-05 0.000000e+00
0.000000e+00 6.000000e-05 0.000000e+00
6.666667e-06 6.000000e-05 0.000000e+00
1.333333e-05 6.000000e-05 0.000000e+00
2.000000e-05 6.000000e-05 0.000000e+00
0.000000e+00 0.000000e+00 6.666667e-06
6.666667e-06 0.000000e+00 6.666667e-06
1.333333e-05 0.000000e+00 6.666667e-06
2.000000e-05 0.000000e+00 6.666667e-06
0.000000e+00 6.666667e-06 6.666667e-06
6.666667e-06 6.666667e-06 6.666667e-06
1.333333e-05 6.666667e-06 6.666667e-06
2.000000e-05 6.666667e-06 6.666667e-06
0.000000e+00 1.333333e-05 6.666667e-06
6.666667e-06 1.333333e-05 6.666667e-06
1.333333e-05 1.333333e-05 6.666667e-06
2.000000e-05 1.333333e-05 6.666667e-06
0.000000e+00 2.000000e-05 6.666667e-06
6.666667e-06 2.000000e-05 6.666667e-06
1.333333e-05 2.000000e-05 6.666667e-06
2.000000e-05 2.000000e-05 6.666667e-06
0.000000e+00 2.666667e-05 6.666667e-06
6.666667e-06 2.666667e-05 6.666667e-06
1.333333e-05 2.666667e-05 6.666667e-06
2.000000e-05 2.666667e-05 6.666667e-06
0.000000e+00 3.333333e-05 6.666667e-06
6.666667e-06 3.333333e-05 6.666667e-06
1.333333e-05 3.333333e-05 6.666667e-06
2.000000e-05 3.333333e-05 6.666667e-06
0.000000e+00 4.000000e-05 6.666667e-06
6.666667e-06 4.000000e-05 6.666667e-06
1.333333e-05 4.000000e-05 6.666667e-06
2.000000e-05 4.000000e-05 6.666667e-06
0.000000e+00 4.666667e-05 6.666667e-06
6.666667e-06 4.666667e-05 6.666667e-06
1.333333e-05 4.666667e-05 6.666667e-06
2.000000e-05 4.666667e-05 6.666667e-06
0.000000e+00 5.333333e-05 6.666667e-06
6.666667e-06 5.333333e-05 6.666667e-06
1.333333e-05 5.333333e-05 6.666667e-06
2.000000e-05 5.333333e-05 6.666667e-06
0.000000e+00 6.000000e-05 6.666667e-06
6.666667e-06 6.000000e-05 6.666667e-06
1.333333e-05 6.000000e-05 6.666667e-06
2.000000e-05 6.000000e-05 6.666667e-06
0.000000e+00 0.000000e+00 1.333333e-05
6.666667e-06 0.000000e+00 1.333333e-05
1.333333e-05 0.000000e+00 1.333333e-05
2.000000e-05 0.000000e+00 1.333333e-05
0.000000e+00 6.666667e-06 1.333333e-05
6.666667e-06 6.666667e-06 1.333333e-05
1.333333e-05 6.666667e-06 1.333333e-05
2.000000e-05 6.666667e-06 1.333333e-05
0.000000e+00 1.333333e-05 1.333333e-05
6.666667e-06 1.333333e-05 1.333333e-05
1.333333e-05 1.333333e-05 1.333333e-05
2.000000e-05 1.333333e-05 1.333333e-05
0.000000e+00 2.000000e-05 1.333333e-05
6.666667e-06 2.000000e-05 1.333333e-05
1.333333e-05 2.000000e-05 1.333333e-05
2.000000e-05 2.000000e-05 1.333333e-05
0.000000e+00 2.666667e-05 1.333333e-05
6.666667e-06 2.666667e-05 1.333333e-05
1.333333e-05 2.666667e-05 1.333333e-05
2.000000e-05 2.666667e-05 1.333333e-05
0.000000e+00 3.333333e-05 1.333333e-05
6.666667e-06 3.333333e-05 1.333333e-05
1.333333e-05 3.333333e-05 1.333333e-05
2.000000e-05 3.333333e-05 1.333333e-05
0.000000e+00 4.000000e-05 1.333333e-05
6.666667e-06 4.000000e-05 1.333333e-05
1.333333e-05 4.000000e-05 1.333333e-05
2.000000e-05 4.000000e-05 1.333333e-05
0.000000e+00 4.666667e-05 1.333333e-05
6.666667e-06 4.666667e-05 1.333333e-05
1.333333e-05 4.666667e-05 1.333333e-05
2.000000e-05 4.666667e-05 1.333333e-05
0.000000e+00 5.333333e-05 1.333333e-05
6.666667e-06 5.333333e-05 1.333333e-05
1.333333e-05 5.333333e-05 1.333333e-05
2.000000e-05 5.333333e-05 1.333333e-05
0.000000e+00 6.000000e-05 1.333333e-05
6.666667e-06 6.000000e-05 1.333333e-05
1.333333e-05 6.000000e-05 1.333333e-05
2.000000e-05 6.000000e-05 1.333333e-05
0.000000e+00 0.000000e+00 2.000000e-05
6.666667e-06 0.000000e+00 2.000000e-05
1.333333e-05 0.000000e+00 2.000000e-05
2.000000e-05 0.000000e+00 2.000000e-05
0.000000e+00 6.666667e-06 2.000000e-05
6.666667e-06 6.666667e-06 2.000000e-05
1.333333e-05 6.666667e-06 2.000000e-05
2.000000e-05 6.666667e-06 2.000000e-05
0.000000e+00 1.333333e-05 2.000000e-05
6.666667e-06 1.333333e-05 2.000000e-05
1.333333e-05 1.333333e-05 2.000000e-05
2.000000e-05 1.333333e-05 2.000000e-05
0.000000e+00 2.000000e-05 2.000000e-05
6.666667e-06 2.000000e-05 2.000000e-05
1.333333e-05 2.000000e-05 2.000000e-05
2.000000e-05 2.000000e-05 2.000000e-05
0.000000e+00 2.666667e-05 2.000000e-05
6.666667e-06 2.666667e-05 2.000000e-05
1.333333e-05 2.666667e-05 2.000000e-05
2.000000e-05 2.666667e-05 2.000000e-05
0.000000e+00 3.333333e-05 2.000000e-05
6.666667e-06 3.333333e-05 2.000000e-05
1.333333e-05 3.333333e-05 2.000000e-05
2.000000e-05 3.333333e-05 2.000000e-05
0.000000e+00 4.000000e-05 2.000000e-05
6.666667e-06 4.000000e-05 2.000000e-05
1.333333e-05 4.000000e-05 2.000000e-05
2.000000e-05 4.000000e-05 2.000000e-05
0.000000e+00 4.666667e-05 2.000000e-05
6.666667e-06 4.666667e-05 2.000000e-05
1.333333e-05 4.666667e-05 2.000000e-05
2.000000e-05 4.666667e-05 2.000000e-05
0.000000e+00 5.333333e-05 2.000000e-05
6.666667e-06 5.333333e-05 2.000000e-05
1.333333e-05 5.333333e-05 2.000000e-05
2.000000e-05 5.333333e-05 2.000000e-05
0.000000e+00 6.000000e-05 2.000000e-05
6.666667e-06 6.000000e-05 2.000000e-05
1.333333e-05 6.000000e-05 2.000000e-05
2.000000e-05 6.000000e-05 2.000000e-05
</DataArray>
</Points>
<Cells>
<DataArray type='Int32' Name='connectivity' format='ascii'>
0 1 5 4 40 41 45 44 
1 2 6 5 41 42 46 45 
2 3 7 6 42 43 47 46 
4 5 9 8 44 45 49 48 
5 6 10 9 45 46 50 49 
6 7 11 10 46 47 51 50 
8 9 13 12 48 49 53 52 
9 10 14 13 49 50 54 53 
10 11 15 14 50 51 55 54 
12 13 17 16 52 53 57 56 
13 14 18 17 53 54 58 57 
14 15 19 18 54 55 59 58 
16 17 21 20 56 57 61 60 
17 18 22 21 57 58 62 61 
18 19 23 22 58 59 63 62 
20 21 25 24 60 61 65 64 
21 22 26 25 61 62 66 65 
22 23 27 26 62 63 67 66 
24 25 29 28 64 65 69 68 
25 26 30 29 65 66 70 69 
26 27 31 30 66 67 71 70 
28 29 33 32 68 69 73 72 
29 30 34 33 69 70 74 73 
30 31 35 34 70 71 75 74 
32 33 37 36 72 73 77 76 
33 34 38 37 73 74 78 77 
34 35 39 38 74 75 79 78 
40 41 45 44 80 81 85 84 
41 42 46 45 81 82 86 85 
42 43 47 46 82 83 87 86 
44 45 49 48 84 85 89 88 
45 46 50 49 85 86 90 89 
46 47 51 50 86 87 91 90 
48 49 53 52 88 89 93 92 
49 50 54 53 89 90 94 93 
50 51 55 54 90 91 95 94 
52 53 57 56 92 93 97 96 
53 54 58 57 93 94 98 97 
54 55 59 58 94 95 99 98 
56 57 61 60 96 97 101 100 
57 58 62 61 97 98 102 101 
58 59 63 62 98 99 103 102 
60 61 65 64 100 101 105 104 
61 62 66 65 101 102 106 105 
62 63 67 66 102 103 107 106 
64 65 69 68 104 105 109 108 
65 66 70 69 105 106 110 109 
66 67 71 70 106 107 111 110 
68 69 73 72 108 109 113 112 
69 70 74 73 109 110 114 113 
70 71 75 74 110 111 115 114 
72 73 77 76 112 113 117 116 
73 74 78 77 113 114 118 117 
74 75 79 78 114 115 119 118 
80 81 85 84 120 121 125 124 
81 82 86 85 121 122 126 125 
82 83 87 86 122 123 127 126 
84 85 89 88 124 125 129 128 
85 86 90 89 125 126 130 129 
86 87 91 90 126 127 131 130 
88 89 93 92 128 129 133 132 
89 90 94 93 129 130 134 133 
90 91 95 94 130 131 135 134 
92 93 97 96 132 133 137 136 
93 94 98 97 133 134 138 137 
94 95 99 98 134 135 139 138 
96 97 101 100 136 137 141 140 
97 98 102 101 137 138 142 141 
98 99 103 102 138 139 143 142 
100 101 105 104 140 141 145 144 
101 102 106 105 141 142 146 145 
102 103 107 106 142 143 147 146 
104 105 109 108 144 145 149 148 
105 106 110 109 145 146 150 149 
106 107 111 110 146 147 151 150 
108 109 113 112 148 149 153 152 
109 110 114 113 149 150 154 153 
110 111 115 114 150 151 155 154 
112 113 117 116 152 153 157 156 
113 114 118 117 153 154 158 157 
114 115 119 118 154 155 159 158 
</DataArray>
<DataArray type='Int32' Name='offsets' format='ascii'>
8
16
24
32
40
48
56
64
72
80
88
96
104
112
120
128
136
144
152
160
168
176
184
192
200
208
216
224
232
240
248
256
264
272
280
288
296
304
312
320
328
336
344
352
360
368
376
384
392
400
408
416
424
432
440
448
456
464
472
480
488
496
504
512
520
528
536
544
552
560
568
576
584
592
600
608
616
624
632
640
648
</DataArray>
<DataArray type='UInt8' Name='types' format='ascii'>
12
12
12
12
12
12
12
12
12
12
12
12
12
12
12
12
12
12
12
12
12
12
12
12
12
12
12
12
12
12
12
12
12
12
12
12
12
12
12
12
12
12
12
12
12
12
12
12
12
12
12
12
12
12
12
12
12
12
12
12
12
12
12
12
12
12
12
12
12
12
12
12
12
12
12
12
12
12
12
12
12
</DataArray>
</Cells>
<PointData>
<DataArray NumberOfComponents='3' type='Int8' Name='Boundary Condition' format='ascii'>
1 1 1
0 1 0
0 1 0
0 1 0
0 0 0
0 0 0
0 0 0
0 0 0
0 0 0
0 0 0
0 0 0
0 0 0
0 0 0
0 0 0
0 0 0
0 0 0
0 0 0
0 0 0
0 0 0
0 0 0
0 0 0
0 0 0
0 0 0
0 0 0
0 0 0
0 0 0
0 0 0
0 0 0
0 0 0
0 0 0
0 0 0
0 0 0
0 0 0
0 0 0
0 0 0
0 0 0
0 -1 0
0 -1 0
0 -1 0
0 -1 0
0 1 0
0 1 0
0 1 0
0 1 0
0 0 0
0 0 0
0 0 0
0 0 0
0 0 0
0 0 0
0 0 0
0 0 0
0 0 0
0 0 0
0 0 0
0 0 0
0 0 0
0 0 0
0 0 0
0 0 0
0 0 0
0 0 0
0 0 0
0 0 0
0 0 0
0 0 0
0 0 0
0 0 0
0 0 0
0 0 0
0 0 0
0 0 0
0 0 0
0 0 0
0 0 0
0 0 0
0 -1 0
0 -1 0
0 -1 0
0 -1 0
0 1 0
0 1 0
0 1 0
0 1 0
0 0 0
0 0 0
0 0 0
0 0 0
0 0 0
0 0 0
0 0 0
0 0 0
0 0 0
0 0 0
0 0 0
0 0 0
0 0 0
0 0 0
0 0 0
0 0 0
0 0 0
0 0 0
0 0 0
0 0 0
0 0 0
0 0 0
0 0 0
0 0 0
0 0 0
0 0 0
0 0 0
0 0 0
0 0 0
0 0 0
0 0 0
0 0 0
0 -1 0
0 -1 0
0 -1 0
0 -1 0
0 1 0
0 1 0
0 1 0
0 1 0
0 0 0
0 0 0
0 0 0
0 0 0
0 0 0
0 0 0
0 0 0
0 0 0
0 0 0
0 0 0
0 0 0
0 0 0
0 0 0
0 0 0
0 0 0
0 0 0
0 0 0
0 0 0
0 0 0
0 0 0
0 0 0
0 0 0
0 0 0
0 0 0
0 0 0
0 0 0
0 0 0
0 0 0
0 0 0
0 0 0
0 0 0
0 0 0
0 -1 0
0 -1 0
0 -1 0
0 -1 0
</DataArray>
<DataArray NumberOfComponents='3' type='Float32' Name='Prescribed Displacement' format='ascii'>
0.000000e+00 0.000000e+00 0.000000e+00
0.000000e+00 0.000000e+00 0.000000e+00
0.000000e+00 0.000000e+00 0.000000e+00
0.000000e+00 0.000000e+00 0.000000e+00
0.000000e+00 0.000000e+00 0.000000e+00
0.000000e+00 0.000000e+00 0.000000e+00
0.000000e+00 0.000000e+00 0.000000e+00
0.000000e+00 0.000000e+00 0.000000e+00
0.000000e+00 0.000000e+00 0.000000e+00
0.000000e+00 0.000000e+00 0.000000e+00
0.000000e+00 0.000000e+00 0.000000e+00
0.000000e+00 0.000000e+00 0.000000e+00
0.000000e+00 0.000000e+00 0.000000e+00
0.000000e+00 0.000000e+00 0.000000e+00
0.000000e+00 0.000000e+00 0.000000e+00
0.000000e+00 0.000000e+00 0.000000e+00
0.000000e+00 0.000000e+00 0.000000e+00
0.000000e+00 0.000000e+00 0.000000e+00
0.000000e+00 0.000000e+00 0.000000e+00
0.000000e+00 0.000000e+00 0.000000e+00
0.000000e+00 0.000000e+00 0.000000e+00
0.000000e+00 0.000000e+00 0.000000e+00
0.000000e+00 0.000000e+00 0.000000e+00
0.000000e+00 0.000000e+00 0.000000e+00
0.000000e+00 0.000000e+00 0.000000e+00
0.000000e+00 0.000000e+00 0.000000e+00
0.000000e+00 0.000000e+00 0.000000e+00
0.000000e+00 0.000000e+00 0.000000e+00
0.000000e+00 0.000000e+00 0.000000e+00
0.000000e+00 0.000000e+00 0.000000e+00
0.000000e+00 0.000000e+00 0.000000e+00
0.000000e+00 0.000000e+00 0.000000e+00
0.000000e+00 0.000000e+00 0.000000e+00
0.000000e+00 0.000000e+00 0.000000e+00
0.000000e+00 0.000000e+00 0.000000e+00
0.000000e+00 0.000000e+00 0.000000e+00
0.000000e+00 6.000000e-08 0.000000e+00
0.000000e+00 6.000000e-08 0.000000e+00
0.000000e+00 6.000000e-08 0.000000e+00
0.000000e+00 6.000000e-08 0.000000e+00
0.000000e+00 0.000000e+00 0.000000e+00
0.000000e+00 0.000000e+00 0.000000e+00
0.000000e+00 0.000000e+00 0.000000e+00
0.000000e+00 0.000000e+00 0.000000e+00
0.000000e+00 0.000000e+00 0.000000e+00
0.000000e+00 0.000000e+00 0.000000e+00
0.000000e+00 0.000000e+00 0.000000e+00
0.000000e+00 0.000000e+00 0.000000e+00
0.000000e+00 0.000000e+00 0.000000e+00
0.000000e+00 0.000000e+00 0.000000e+00
0.000000e+00 0.000000e+00 0.000000e+00
0.000000e+00 0.000000e+00 0.000000e+00
0.000000e+00 0.000000e+00 0.000000e+00
0.000000e+00 0.000000e+00 0.000000e+00
0.000000e+00 0.000000e+00 0.000000e+00
0.000000e+00 0.000000e+00 0.000000e+00
0.000000e+00 0.000000e+00 0.000000e+00
0.000000e+00 0.000000e+00 0.000000e+00
0.000000e+00 0.000000e+00 0.000000e+00
0.000000e+00 0.000000e+00 0.000000e+00
0.000000e+00 0.000000e+00 0.000000e+00
0.000000e+00 0.000000e+00 0.000000e+00
0.000000e+00 0.000000e+00 0.000000e+00
0.000000e+00 0.000000e+00 0.000000e+00
0.000000e+00 0.000000e+00 0.000000e+00
0.000000e+00 0.000000e+00 0.000000e+00
0.000000e+00 0.000000e+00 0.000000e+00
0.000000e+00 0.000000e+00 0.000000e+00
0.000000e+00 0.000000e+00 0.000000e+00
0.000000e+00 0.000000e+00 0.000000e+00
0.000000e+00 0.000000e+00 0.000000e+00
0.000000e+00 0.000000e+00 0.000000e+00
0.000000e+00 0.000000e+00 0.000000e+00
0.000000e+00 0.000000e+00 0.000000e+00
0.000000e+00 0.000000e+00 0.000000e+00
0.000000e+00 0.000000e+00 0.000000e+00
0.000000e+00 6.000000e-08 0.000000e+00
0.000000e+00 6.000000e-08 0.000000e+00
0.000000e+00 6.000000e-08 0.000000e+00
0.000000e+00 6.000000e-08 0.000000e+00
0.000000e+00 0.000000e+00 0.000000e+00
0.000000e+00 0.000000e+00 0.000000e+00
0.000000e+00 0.000000e+00 0.000000e+00
0.000000e+00 0.000000e+00 0.000000e+00
0.000000e+00 0.000000e+00 0.000000e+00
0.000000e+00 0.000000e+00 0.000000e+00
0.000000e+00 0.000000e+00 0.000000e+00
0.000000e+00 0.000000e+00 0.000000e+00
0.000000e+00 0.000000e+00 0.000000e+00
0.000000e+00 0.000000e+00 0.000000e+00
0.000000e+00 0.000000e+00 0.000000e+00
0.000000e+00 0.000000e+00 0.000000e+00
0.000000e+00 0.000000e+00 0.000000e+00
0.000000e+00 0.000000e+00 0.000000e+00
0.000000e+00 0.000000e+00 0.000000e+00
0.000000e+00 0.000000e+00 0.000000e+00
0.000000e+00 0.000000e+00 0.000000e+00
0.000000e+00 0.000000e+00 0.000000e+00
0.000000e+00 0.000000e+00 0.000000e+00
0.000000e+00 0.000000e+00 0.000000e+00
0.000000e+00 0.000000e+00 0.000000e+00
0.000000e+00 0.000000e+00 0.000000e+00
0.000000e+00 0.000000e+00 0.000000e+00
0.000000e+00 0.000000e+00 0.000000e+00
0.000000e+00 0.000000e+00 0.000000e+00
0.000000e+00 0.000000e+00 0.000000e+00
0.000000e+00 0.000000e+00 0.000000e+00
0.000000e+00 0.000000e+00 0.000000e+00
0.000000e+00 0.000000e+00 0.000000e+00
0.000000e+00 0.000000e+00 0.000000e+00
0.000000e+00 0.000000e+00 0.000000e+00
0.000000e+00 0.000000e+00 0.000000e+00
0.000000e+00 0.000000e+00 0.000000e+00
0.000000e+00 0.000000e+00 0.000000e+00
0.000000e+00 0.000000e+00 0.000000e+00
0.000000e+00 0.000000e+00 0.000000e+00
0.000000e+00 6.000000e-08 0.000000e+00
0.000000e+00 6.000000e-08 0.000000e+00
0.000000e+00 6.000000e-08 0.000000e+00
0.000000e+00 6.000000e-08 0.000000e+00
0.000000e+00 0.000000e+00 0.000000e+00
0.000000e+00 0.000000e+00 0.000000e+00
0.000000e+00 0.000000e+00 0.000000e+00
0.000000e+00 0.000000e+00 0.000000e+00
0.000000e+00 0.000000e+00 0.000000e+00
0.000000e+00 0.000000e+00 0.000000e+00
0.000000e+00 0.000000e+00 0.000000e+00
0.000000e+00 0.000000e+00 0.000000e+00
0.000000e+00 0.000000e+00 0.000000e+00
0.000000e+00 0.000000e+00 0.000000e+00
0.000000e+00 0.000000e+00 0.000000e+00
0.000000e+00 0.000000e+00 0.000000e+00
0.000000e+00 0.000000e+00 0.000000e+00
0.000000e+00 0.000000e+00 0.000000e+00
0.000000e+00 0.000000e+00 0.000000e+00
0.000000e+00 0.000000e+00 0.000000e+00
0.000000e+00 0.000000e+00 0.000000e+00
0.000000e+00 0.000000e+00 0.000000e+00
0.000000e+00 0.000000e+00 0.000000e+00
0.000000e+00 0.000000e+00 0.000000e+00
0.000000e+00 0.000000e+00 0.000000e+00
0.000000e+00 0.000000e+00 0.000000e+00
0.000000e+00 0.000000e+00 0.000000e+00
0.000000e+00 0.000000e+00 0.000000e+00
0.000000e+00 0.000000e+00 0.000000e+00
0.000000e+00 0.000000e+00 0.000000e+00
0.000000e+00 0.000000e+00 0.000000e+00
0.000000e+00 0.000000e+00 0.000000e+00
0.000000e+00 0.000000e+00 0.000000e+00
0.000000e+00 0.000000e+00 0.000000e+00
0.000000e+00 0.000000e+00 0.000000e+00
0.000000e+00 0.000000e+00 0.000000e+00
0.000000e+00 0.000000e+00 0.000000e+00
0.000000e+00 0.000000e+00 0.000000e+00
0.000000e+00 0.000000e+00 0.000000e+00
0.000000e+00 0.000000e+00 0.000000e+00
0.000000e+00 6.000000e-08 0.000000e+00
0.000000e+00 6.000000e-08 0.000000e+00
0.000000e+00 6.000000e-08 0.000000e+00
0.000000e+00 6.000000e-08 0.000000e+00
</DataArray>
<DataArray NumberOfComponents='3' type='Float32' Name='Prescribed Traction' format='ascii'>
0.000000e+00 0.000000e+00 0.000000e+00
0.000000e+00 0.000000e+00 0.000000e+00
0.000000e+00 0.000000e+00 0.000000e+00
0.000000e+00 0.000000e+00 0.000000e+00
0.000000e+00 0.000000e+00 0.000000e+00
0.000000e+00 0.000000e+00 0.000000e+00
0.000000e+00 0.000000e+00 0.000000e+00
0.000000e+00 0.000000e+00 0.000000e+00
0.000000e+00 0.000000e+00 0.000000e+00
0.000000e+00 0.000000e+00 0.000000e+00
0.000000e+00 0.000000e+00 0.000000e+00
0.000000e+00 0.000000e+00 0.000000e+00
0.000000e+00 0.000000e+00 0.000000e+00
0.000000e+00 0.000000e+00 0.000000e+00
0.000000e+00 0.000000e+00 0.000000e+00
0.000000e+00 0.000000e+00 0.000000e+00
0.000000e+00 0.000000e+00 0.000000e+00
0.000000e+00 0.000000e+00 0.000000e+00
0.000000e+00 0.000000e+00 0.000000e+00
0.000000e+00 0.000000e+00 0.000000e+00
0.000000e+00 0.000000e+00 0.000000e+00
0.000000e+00 0.000000e+00 0.000000e+00
0.000000e+00 0.000000e+00 0.000000e+00
0.000000e+00 0.000000e+00 0.000000e+00
0.000000e+00 0.000000e+00 0.000000e+00
0.000000e+00 0.000000e+00 0.000000e+00
0.000000e+00 0.000000e+00 0.000000e+00
0.000000e+00 0.000000e+00 0.000000e+00
0.000000e+00 0.000000e+00 0.000000e+00
0.000000e+00 0.000000e+00 0.000000e+00
0.000000e+00 0.000000e+00 0.000000e+00
0.000000e+00 0.000000e+00 0.000000e+00
0.000000e+00 0.000000e+00 0.000000e+00
0.000000e+00 0.000000e+00 0.000000e+00
0.000000e+00 0.000000e+00 0.000000e+00
0.000000e+00 0.000000e+00 0.000000e+00
0.000000e+00 0.000000e+00 0.000000e+00
0.000000e+00 0.000000e+00 0.000000e+00
0.000000e+00 0.000000e+00 0.000000e+00
0.000000e+00 0.000000e+00 0.000000e+00
0.000000e+00 0.000000e+00 0.000000e+00
0.000000e+00 0.000000e+00 0.000000e+00
0.000000e+00 0.000000e+00 0.000000e+00
0.000000e+00 0.000000e+00 0.000000e+00
0.000000e+00 0.000000e+00 0.000000e+00
0.000000e+00 0.000000e+00 0.000000e+00
0.000000e+00 0.000000e+00 0.000000e+00
0.000000e+00 0.000000e+00 0.000000e+00
0.000000e+00 0.000000e+00 0.000000e+00
0.000000e+00 0.000000e+00 0.000000e+00
0.000000e+00 0.000000e+00 0.000000e+00
0.000000e+00 0.000000e+00 0.000000e+00
0.000000e+00 0.000000e+00 0.000000e+00
0.000000e+00 0.000000e+00 0.000000e+00
0.000000e+00 0.000000e+00 0.000000e+00
0.000000e+00 0.000000e+00 0.000000e+00
0.000000e+00 0.000000e+00 0.000000e+00
0.000000e+00 0.000000e+00 0.000000e+00
0.000000e+00 0.000000e+00 0.000000e+00
0.000000e+00 0.000000e+00 0.000000e+00
0.000000e+00 0.000000e+00 0.000000e+00
0.000000e+00 0.000000e+00 0.000000e+00
0.000000e+00 0.000000e+00 0.000000e+00
0.000000e+00 0.000000e+00 0.000000e+00
0.000000e+00 0.000000e+00 0.000000e+00
0.000000e+00 0.000000e+00 0.000000e+00
0.000000e+00 0.000000e+00 0.000000e+00
0.000000e+00 0.000000e+00 0.000000e+00
0.000000e+00 0.000000e+00 0.000000e+00
0.000000e+00 0.000000e+00 0.000000e+00
0.000000e+00 0.000000e+00 0.000000e+00
0.000000e+00 0.000000e+00 0.000000e+00
0.000000e+00 0.000000e+00 0.000000e+00
0.000000e+00 0.000000e+00 0.000000e+00
0.000000e+00 0.000000e+00 0.000000e+00
0.000000e+00 0.000000e+00 0.000000e+00
0.000000e+00 0.000000e+00 0.000000e+00
0.000000e+00 0.000000e+00 0.000000e+00
0.000000e+00 0.000000e+00 0.000000e+00
0.000000e+00 0.000000e+00 0.000000e+00
0.000000e+00 0.000000e+00 0.000000e+00
0.000000e+00 0.000000e+00 0.000000e+00
0.000000e+00 0.000000e+00 0.000000e+00
0.000000e+00 0.000000e+00 0.000000e+00
0.000000e+00 0.000000e+00 0.000000e+00
0.000000e+00 0.000000e+00 0.000000e+00
0.000000e+00 0.000000e+00 0.000000e+00
0.000000e+00 0.000000e+00 0.000000e+00
0.000000e+00 0.000000e+00 0.000000e+00
0.000000e+00 0.000000e+00 0.000000e+00
0.000000e+00 0.000000e+00 0.000000e+00
0.000000e+00 0.000000e+00 0.000000e+00
0.000000e+00 0.000000e+00 0.000000e+00
0.000000e+00 0.000000e+00 0.000000e+00
0.000000e+00 0.000000e+00 0.000000e+00
0.000000e+00 0.000000e+00 0.000000e+00
0.000000e+00 0.000000e+00 0.000000e+00
0.000000e+00 0.000000e+00 0.000000e+00
0.000000e+00 0.000000e+00 0.000000e+00
0.000000e+00 0.000000e+00 0.000000e+00
0.000000e+00 0.000000e+00 0.000000e+00
0.000000e+00 0.000000e+00 0.000000e+00
0.000000e+00 0.000000e+00 0.000000e+00
0.000000e+00 0.000000e+00 0.000000e+00
0.000000e+00 0.000000e+00 0.000000e+00
0.000000e+00 0.000000e+00 0.000000e+00
0.000000e+00 0.000000e+00 0.000000e+00
0.000000e+00 0.000000e+00 0.000000e+00
0.000000e+00 0.000000e+00 0.000000e+00
0.000000e+00 0.000000e+00 0.000000e+00
0.000000e+00 0.000000e+00 0.000000e+00
0.000000e+00 0.000000e+00 0.000000e+00
0.000000e+00 0.000000e+00 0.000000e+00
0.000000e+00 0.000000e+00 0.000000e+00
0.000000e+00 0.000000e+00 0.000000e+00
0.000000e+00 0.000000e+00 0.000000e+00
0.000000e+00 0.000000e+00 0.000000e+00
0.000000e+00 0.000000e+00 0.000000e+00
0.000000e+00 0.000000e+00 0.000000e+00
0.000000e+00 0.000000e+00 0.000000e+00
0.000000e+00 0.000000e+00 0.000000e+00
0.000000e+00 0.000000e+00 0.000000e+00
0.000000e+00 0.000000e+00 0.000000e+00
0.000000e+00 0.000000e+00 0.000000e+00
0.000000e+00 0.000000e+00 0.000000e+00
0.000000e+00 0.000000e+00 0.000000e+00
0.000000e+00 0.000000e+00 0.000000e+00
0.000000e+00 0.000000e+00 0.000000e+00
0.000000e+00 0.000000e+00 0.000000e+00
0.000000e+00 0.000000e+00 0.000000e+00
0.000000e+00 0.000000e+00 0.000000e+00
0.000000e+00 0.000000e+00 0.000000e+00
0.000000e+00 0.000000e+00 0.000000e+00
0.000000e+00 0.000000e+00 0.000000e+00
0.000000e+00 0.000000e+00 0.000000e+00
0.000000e+00 0.000000e+00 0.000000e+00
0.000000e+00 0.000000e+00 0.000000e+00
0.000000e+00 0.000000e+00 0.000000e+00
0.000000e+00 0.000000e+00 0.000000e+00
0.000000e+00 0.000000e+00 0.000000e+00
0.000000e+00 0.000000e+00 0.000000e+00
0.000000e+00 0.000000e+00 0.000000e+00
0.000000e+00 0.000000e+00 0.000000e+00
0.000000e+00 0.000000e+00 0.000000e+00
0.000000e+00 0.000000e+00 0.000000e+00
0.000000e+00 0.000000e+00 0.000000e+00
0.000000e+00 0.000000e+00 0.000000e+00
0.000000e+00 0.000000e+00 0.000000e+00
0.000000e+00 0.000000e+00 0.000000e+00
0.000000e+00 0.000000e+00 0.000000e+00
0.000000e+00 0.000000e+00 0.000000e+00
0.000000e+00 0.000000e+00 0.000000e+00
0.000000e+00 0.000000e+00 0.000000e+00
0.000000e+00 0.000000e+00 0.000000e+00
0.000000e+00 0.000000e+00 0.000000e+00
0.000000e+00 0.000000e+00 0.000000e+00
0.000000e+00 0.000000e+00 0.000000e+00
0.000000e+00 0.000000e+00 0.000000e+00
0.000000e+00 0.000000e+00 0.000000e+00
0.000000e+00 0.000000e+00 0.000000e+00
</DataArray>
<DataArray NumberOfComponents='3' type='UInt8' Name='Multi-Point Constraints' format='ascii'>
0 0 0
0 0 0
0 0 0
0 0 0
0 0 0
0 0 0
0 0 0
0 0 0
0 0 0
0 0 0
0 0 0
0 0 0
0 0 0
0 0 0
0 0 0
0 0 0
0 0 0
0 0 0
0 0 0
0 0 0
0 0 0
0 0 0
0 0 0
0 0 0
0 0 0
0 0 0
0 0 0
0 0 0
0 0 0
0 0 0
0 0 0
0 0 0
0 0 0
0 0 0
0 0 0
0 0 0
0 0 0
0 0 0
0 0 0
0 0 0
0 0 0
0 0 0
0 0 0
0 0 0
0 0 0
0 0 0
0 0 0
0 0 0
0 0 0
0 0 0
0 0 0
0 0 0
0 0 0
0 0 0
0 0 0
0 0 0
0 0 0
0 0 0
0 0 0
0 0 0
0 0 0
0 0 0
0 0 0
0 0 0
0 0 0
0 0 0
0 0 0
0 0 0
0 0 0
0 0 0
0 0 0
0 0 0
0 0 0
0 0 0
0 0 0
0 0 0
0 0 0
0 0 0
0 0 0
0 0 0
0 0 0
0 0 0
0 0 0
0 0 0
0 0 0
0 0 0
0 0 0
0 0 0
0 0 0
0 0 0
0 0 0
0 0 0
0 0 0
0 0 0
0 0 0
0 0 0
0 0 0
0 0 0
0 0 0
0 0 0
0 0 0
0 0 0
0 0 0
0 0 0
0 0 0
0 0 0
0 0 0
0 0 0
0 0 0
0 0 0
0 0 0
0 0 0
0 0 0
0 0 0
0 0 0
0 0 0
0 0 0
0 0 0
0 0 0
0 0 0
0 0 0
0 0 0
0 0 0
0 0 0
0 0 0
0 0 0
0 0 0
0 0 0
0 0 0
0 0 0
0 0 0
0 0 0
0 0 0
0 0 0
0 0 0
0 0 0
0 0 0
0 0 0
0 0 0
0 0 0
0 0 0
0 0 0
0 0 0
0 0 0
0 0 0
0 0 0
0 0 0
0 0 0
0 0 0
0 0 0
0 0 0
0 0 0
0 0 0
0 0 0
0 0 0
0 0 0
0 0 0
0 0 0
0 0 0
0 0 0
</DataArray>
<DataArray NumberOfComponents='3' type='Float32' Name='MPC Ratio' format='ascii'>
0.000000e+00 0.000000e+00 0.000000e+00
0.000000e+00 0.000000e+00 0.000000e+00
0.000000e+00 0.000000e+00 0.000000e+00
0.000000e+00 0.000000e+00 0.000000e+00
0.000000e+00 0.000000e+00 0.000000e+00
0.000000e+00 0.000000e+00 0.000000e+00
0.000000e+00 0.000000e+00 0.000000e+00
0.000000e+00 0.000000e+00 0.000000e+00
0.000000e+00 0.000000e+00 0.000000e+00
0.000000e+00 0.000000e+00 0.000000e+00
0.000000e+00 0.000000e+00 0.000000e+00
0.000000e+00 0.000000e+00 0.000000e+00
0.000000e+00 0.000000e+00 0.000000e+00
0.000000e+00 0.000000e+00 0.000000e+00
0.000000e+00 0.000000e+00 0.000000e+00
0.000000e+00 0.000000e+00 0.000000e+00
0.000000e+00 0.000000e+00 0.000000e+00
0.000000e+00 0.000000e+00 0.000000e+00
0.000000e+00 0.000000e+00 0.000000e+00
0.000000e+00 0.000000e+00 0.000000e+00
0.000000e+00 0.000000e+00 0.000000e+00
0.000000e+00 0.000000e+00 0.000000e+00
0.000000e+00 0.000000e+00 0.000000e+00
0.000000e+00 0.000000e+00 0.000000e+00
0.000000e+00 0.000000e+00 0.000000e+00
0.000000e+00 0.000000e+00 0.000000e+00
0.000000e+00 0.000000e+00 0.000000e+00
0.000000e+00 0.000000e+00 0.000000e+00
0.000000e+00 0.000000e+00 0.000000e+00
0.000000e+00 0.000000e+00 0.000000e+00
0.000000e+00 0.000000e+00 0.000000e+00
0.000000e+00 0.000000e+00 0.000000e+00
0.000000e+00 0.000000e+00 0.000000e+00
0.000000e+00 0.000000e+00 0.000000e+00
0.000000e+00 0.000000e+00 0.000000e+00
0.000000e+00 0.000000e+00 0.000000e+00
0.000000e+00 0.000000e+00 0.000000e+00
0.000000e+00 0.000000e+00 0.000000e+00
0.000000e+00 0.000000e+00 0.000000e+00
0.000000e+00 0.000000e+00 0.000000e+00
0.000000e+00 0.000000e+00 0.000000e+00
0.000000e+00 0.000000e+00 0.000000e+00
0.000000e+00 0.000000e+00 0.000000e+00
0.000000e+00 0.000000e+00 0.000000e+00
0.000000e+00 0.000000e+00 0.000000e+00
0.000000e+00 0.000000e+00 0.000000e+00
0.000000e+00 0.000000e+00 0.000000e+00
0.000000e+00 0.000000e+00 0.000000e+00
0.000000e+00 0.000000e+00 0.000000e+00
0.000000e+00 0.000000e+00 0.000000e+00
0.000000e+00 0.000000e+00 0.000000e+00
0.000000e+00 0.000000e+00 0.000000e+00
0.000000e+00 0.000000e+00 0.000000e+00
0.000000e+00 0.000000e+00 0.000000e+00
0.000000e+00 0.000000e+00 0.000000e+00
0.000000e+00 0.000000e+00 0.000000e+00
0.000000e+00 0.000000e+00 0.000000e+00
0.000000e+00 0.000000e+00 0.000000e+00
0.000000e+00 0.000000e+00 0.000000e+00
0.000000e+00 0.000000e+00 0.000000e+00
0.000000e+00 0.000000e+00 0.000000e+00
0.000000e+00 0.000000e+00 0.000000e+00
0.000000e+00 0.000000e+00 0.000000e+00
0.000000e+00 0.000000e+00 0.000000e+00
0.000000e+00 0.000000e+00 0.000000e+00
0.000000e+00 0.000000e+00 0.000000e+00
0.000000e+00 0.000000e+00 0.000000e+00
0.000000e+00 0.000000e+00 0.000000e+00
0.000000e+00 0.000000e+00 0.000000e+00
0.000000e+00 0.000000e+00 0.000000e+00
0.000000e+00 0.000000e+00 0.000000e+00
0.000000e+00 0.000000e+00 0.000000e+00
0.000000e+00 0.000000e+00 0.000000e+00
0.000000e+00 0.000000e+00 0.000000e+00
0.000000e+00 0.000000e+00 0.000000e+00
0.000000e+00 0.000000e+00 0.000000e+00
0.000000e+00 0.000000e+00 0.000000e+00
0.000000e+00 0.000000e+00 0.000000e+00
0.000000e+00 0.000000e+00 0.000000e+00
0.000000e+00 0.000000e+00 0.000000e+00
0.000000e+00 0.000000e+00 0.000000e+00
0.000000e+00 0.000000e+00 0.000000e+00
0.000000e+00 0.000000e+00 0.000000e+00
0.000000e+00 0.000000e+00 0.000000e+00
0.000000e+00 0.000000e+00 0.000000e+00
0.000000e+00 0.000000e+00 0.000000e+00
0.000000e+00 0.000000e+00 0.000000e+00
0.000000e+00 0.000000e+00 0.000000e+00
0.000000e+00 0.000000e+00 0.000000e+00
0.000000e+00 0.000000e+00 0.000000e+00
0.000000e+00 0.000000e+00 0.000000e+00
0.000000e+00 0.000000e+00 0.000000e+00
0.000000e+00 0.000000e+00 0.000000e+00
0.000000e+00 0.000000e+00 0.000000e+00
0.000000e+00 0.000000e+00 0.000000e+00
0.000000e+00 0.000000e+00 0.000000e+00
0.000000e+00 0.000000e+00 0.000000e+00
0.000000e+00 0.000000e+00 0.000000e+00
0.000000e+00 0.000000e+00 0.000000e+00
0.000000e+00 0.000000e+00 0.000000e+00
0.000000e+00 0.000000e+00 0.000000e+00
0.000000e+00 0.000000e+00 0.000000e+00
0.000000e+00 0.000000e+00 0.000000e+00
0.000000e+00 0.000000e+00 0.000000e+00
0.000000e+00 0.000000e+00 0.000000e+00
0.000000e+00 0.000000e+00 0.000000e+00
0.000000e+00 0.000000e+00 0.000000e+00
0.000000e+00 0.000000e+00 0.000000e+00
0.000000e+00 0.000000e+00 0.000000e+00
0.000000e+00 0.000000e+00 0.000000e+00
0.000000e+00 0.000000e+00 0.000000e+00
0.000000e+00 0.000000e+00 0.000000e+00
0.000000e+00 0.000000e+00 0.000000e+00
0.000000e+00 0.000000e+00 0.000000e+00
0.000000e+00 0.000000e+00 0.000000e+00
0.000000e+00 0.000000e+00 0.000000e+00
0.000000e+00 0.000000e+00 0.000000e+00
0.000000e+00 0.000000e+00 0.000000e+00
0.000000e+00 0.000000e+00 0.000000e+00
0.000000e+00 0.000000e+00 0.000000e+00
0.000000e+00 0.000000e+00 0.000000e+00
0.000000e+00 0.000000e+00 0.000000e+00
0.000000e+00 0.000000e+00 0.000000e+00
0.000000e+00 0.000000e+00 0.000000e+00
0.000000e+00 0.000000e+00 0.000000e+00
0.000000e+00 0.000000e+00 0.000000e+00
0.000000e+00 0.000000e+00 0.000000e+00
0.000000e+00 0.000000e+00 0.000000e+00
0.000000e+00 0.000000e+00 0.000000e+00
0.000000e+00 0.000000e+00 0.000000e+00
0.000000e+00 0.000000e+00 0.000000e+00
0.000000e+00 0.000000e+00 0.000000e+00
0.000000e+00 0.000000e+00 0.000000e+00
0.000000e+00 0.000000e+00 0.000000e+00
0.000000e+00 0.000000e+00 0.000000e+00
0.000000e+00 0.000000e+00 0.000000e+00
0.000000e+00 0.000000e+00 0.000000e+00
0.000000e+00 0.000000e+00 0.000000e+00
0.000000e+00 0.000000e+00 0.000000e+00
0.000000e+00 0.000000e+00 0.000000e+00